# vtk DataFile Version 2.0
Studying a square in a cube
ASCII
DATASET STRUCTURED_POINTS
DIMENSIONS 101 101 101
ASPECT_RATIO 1 1 1
ORIGIN 0 0 0
POINT_DATA 1030301
SCALARS sum double 1
LOOKUP_TABLE default
